VARIABLES = "X"
 "Y"
 "Z"
 "Density"
 "Momentum_X"
 "Momentum_Y"
 "Momentum_Z"
 "Energy"
 "Pressure"
 "Temperature"
 "Mach"
 "Pressure_Coefficient"
 "Velocity_X"
 "Velocity_Y"
 "Velocity_Z"
ZONE
DT=(DOUBLE,DOUBLE,DOUBLE,DOUBLE,DOUBLE,DOUBLE,DOUBLE,DOUBLE,DOUBLE,DOUBLE,DOUBLE,DOUBLE,DOUBLE,DOUBLE,DOUBLE)
                      0                       0                       0        39.7606391906738         983.03955078125   -4.38823803960986E-08                       0                37356136             796733.1875        494.635955810547       0.193184062838554       -14.8477411270142        24.7239360809326   -1.10366382699567E-09                       0 
   0.000305764411027569                       0                       0        39.7606099064181        983.063412468433   -4.90389844049172E-08                       0        37356108.4110269        796732.645206754        494.635925292969        0.19318887251521       -14.8483579607095        24.7245566002538   -1.23335594687131E-09                       0 
   0.000611528822055138                       0                       0        39.7605046628436        983.130694777411   -4.22547932822673E-08                       0        37356009.1729346        796730.920896029        494.635877719202        0.19320251051315         -14.85044458571        24.7263139327567   -1.06273278518057E-09                       0 
   0.000917293233082707                       0                       0        39.7603297986328        983.242719846218   -3.58320506588938E-08                       0        37355843.6390839          796728.0559208        494.635823414732       0.193225195535281       -14.8539176312923        24.7292392704523   -9.01201030185342E-10                       0 
    0.00122305764411028                       0                       0        39.7600815565165        983.399495742232   -3.09332944672771E-08                       0         37355612.220561        796724.043859817        494.635708075122       0.193256962193479       -14.8588018678284        24.7333374356385   -7.77998723934398E-10                       0 
    0.00152882205513784                       0                       0         39.759763301798        983.602425230842   -2.80163796228593E-08                       0        37355311.9198315        796718.830514336        494.635565353831       0.193298067771778       -14.8651197015556        24.7386394820108   -7.04641513974487E-10                       0 
    0.00183458646616541                       0                       0        39.7593724529854        983.853373859091   -2.57444288759169E-08                       0         37354939.849567        796712.370769713         494.63539570971       0.193348893777313       -14.8729059546559        24.7451942138162   -6.47505820256947E-10                       0 
    0.00214035087719298                       0                       0         39.758900090233        984.152230268176   -2.51111150608571E-08                       0         37354497.543827        796704.694078378        494.635212145336       0.193409449441694       -14.8822218751243        24.7530039073639   -6.31584731914371E-10                       0 
    0.00244611528822055                       0                       0         39.758353450883        984.500672125422   -2.44130335055325E-08                       0        37353980.8822438        796695.737939267        494.634988196828       0.193480033468863       -14.8930701245284        24.7621089001089    -6.1403530855966E-10                       0 
    0.00275187969924812                       0                       0        39.7577249052314        984.900367311172   -2.49307984250188E-08                       0         37353388.511144        796685.438907425        494.634703213058       0.193561018203869       -14.9055148705116         24.772553066242   -6.27068040437803E-10                       0 
    0.00305764411027569                       0                       0        39.7570128861187        985.354635848214   -2.40534560780206E-08                       0        37352715.7896673        796673.724470829        494.634418229482        0.19365305280952       -14.9196658679059        24.7844232271518   -6.05011508088576E-10                       0 
    0.00336340852130326                       0                       0          39.75621065221        985.863913323585   -2.42923864092099E-08                       0        37351961.0025059        796660.630325808        494.634085213032       0.193756246253112       -14.9355533666852        24.7977334168384    -6.1103362823086E-10                       0 
    0.00366917293233083                       0                       0        39.7553184334539          986.4318872269    -2.5795404082741E-08                       0        37351117.5035096        796646.012213708        494.633704622768       0.193871333444641       -14.9532564043231        24.8125764417121   -6.48854496362455E-10                       0 
     0.0039749373433584                       0                       0        39.7543296140011        987.058701285321   -2.60329507985917E-08                       0        37350185.2426644         796629.80309371        494.633280512491       0.193998346189972       -14.9728380359495        24.8289603262352   -6.54845826738232E-10                       0 
    0.00428070175438596                       0                       0        39.7532401501629        987.751109438422   -3.11827969679064E-08                       0        37349157.6840648        796611.956137836        494.632828561814        0.19413866078533       -14.9944486648584        24.8470585162621   -7.84409041232028E-10                       0 
    0.00458646616541353                       0                       0        39.7520475748311        988.509394682896   -3.10413431704266E-08                       0        37348033.4738943        796592.379232982        494.632319629732       0.194292343507922       -15.0181350950654        24.8668808147032   -7.80874453515075E-10                       0 
     0.0048922305764411                       0                       0        39.7507370680461        989.338871355845   -3.09558323707612E-08                       0        37346797.3731486        796570.951122867        494.631765800479       0.194460466916293       -15.0441029281093        24.8885680705155   -7.78748245604224E-10                       0 
    0.00519799498746867                       0                       0        39.7493120644502        990.240844164988   -3.11336581384092E-08                       0        37345452.6823135        796547.603863952        494.631172046583       0.194643294780719       -15.0723583361754        24.9121521386421   -7.83250229109835E-10                       0 
    0.00550375939849624                       0                       0        39.7477622922098        991.219997267846     -3.186306551739E-08                       0         37343991.397893        796522.212395565        494.630516338799        0.19484179133489       -15.1030564112483        24.9377564414682   -8.01631665608573E-10                       0 
    0.00580952380952381                       0                       0         39.746079399339        992.281561072268   -3.25031029716373E-08                       0        37342403.9998748        796494.690474022        494.629813057977       0.195057018189127       -15.1364144396951        24.9655206792995   -8.17768800583666E-10                       0 
    0.00611528822055138                       0                       0        39.7442633172074        993.429784044387   -3.28088982199239E-08                       0         37340691.058071        796464.885189126        494.629049659855       0.195289809917746       -15.1724531949116        24.9955516778664   -8.25500113048901E-10                       0 
    0.00642105263157895                       0                       0        39.7422939099672        994.668354240991   -3.18462228394591E-08                       0        37338835.5789387        796432.680920902        494.628213982829       0.195540976368674       -15.2114766775247        25.0279538005538   -8.01317838670214E-10                       0 
    0.00672681704260652                       0                       0        39.7401737017084        996.002781602024   -3.11643495356533E-08                       0        37336832.8006469        796397.934186823         494.62733073162       0.195811608266767       -15.2535376655855        25.0628692128289   -7.84202835572014E-10                       0 
    0.00703258145363408                       0                       0        39.7378921121174        997.437991668298   -3.08496272478293E-08                       0          37334681.56342        796360.503907499        494.626369390046       0.196102720856794       -15.2988284460553        25.1004251121267   -7.76327614984127E-10                       0 
    0.00733834586466165                       0                       0        39.7354308680066        998.981610087884   -3.34338637122722E-08                       0        37332359.0074793         796320.17434142        494.625329956954       0.196415874076037       -15.3476150922552        25.1408277389425   -8.41412206794801E-10                       0 
    0.00764411027568922                       0                       0         39.732786394524        1000.63690730662   -3.40352182253243E-08                       0        37329864.7927538        796276.847287882        494.624212432682       0.196751730864953       -15.4000550444485        25.1841625423063   -8.56603885081204E-10                       0 
    0.00794987468671679                       0                       0        39.7299456760794        1002.41083162018   -3.60085807756956E-08                       0        37327185.2717828        796230.304956885        494.623016815694       0.197111724276831       -15.4563777663472        25.2306123559663   -9.06332828147652E-10                       0 
    0.00825563909774436                       0                       0        39.7269110694395        1004.30726054468    -3.7453749339793E-08                       0        37324323.0957605        796180.585961696          494.6217431081       0.197496624970948       -15.5166032175925        25.2802766984724   -9.42780124029695E-10                       0 
    0.00856140350877193                       0                       0        39.7236421149873         1006.3376893285   -3.31629426168235E-08                       0        37321239.2982267        796127.027411952         494.62036079272       0.197908840422479       -15.5814099901393        25.3334710977701   -8.34840818941577E-10                       0 
     0.0088671679197995                       0                       0        39.7201494034534          1008.504988296   -3.28492432689903E-08                       0        37317945.5259945         796069.80282618        494.618900386105       0.198348916381961       -15.6506967897027         25.390262250452   -8.27016384641516E-10                       0 
    0.00917293233082707                       0                       0        39.7164170092274        1010.81705470024   -3.30344206017677E-08                       0        37314426.4339855        796008.651279181         494.61733136765       0.198818481563663       -15.7246947910937        25.4508621894592   -8.31757821138084E-10                       0 
    0.00947869674185464                       0                       0        39.7124263862915        1013.27875429155   -3.43620676365225E-08                       0        37310662.6242252        795943.258731192        494.615648770522       0.199318579763034       -15.8038329399576        25.5154067371909   -8.65272074120138E-10                       0 
     0.0097844611528822                       0                       0        39.7081780761015        1015.90177756841   -3.39728214837413E-08                       0        37306653.0808936        795873.602098848        494.613838749493       0.199851535781631       -15.8881590490844        25.5841964611885   -8.55562304547707E-10                       0 
     0.0100902255639098                       0                       0        39.7036290286118        1018.69170118619   -3.19011389036924E-08                       0        37302363.5497966        795799.070504776        494.611928610406       0.200418628125594       -15.9783868451623         25.657395612355   -8.03481027738343E-10                       0 
     0.0103959899749373                       0                       0        39.6987835346382        1021.65615894853   -3.33244749394234E-08                       0        37297793.8787548        795719.681931512        494.609892882763       0.201021339684788       -16.0744931601879        25.7352007028546   -8.39434194412136E-10                       0 
     0.0107017543859649                       0                       0        39.6936322226319        1024.80132741222   -3.28215708430142E-08                       0        37292935.3650193        795635.220335601        494.607717947558       0.201660988548239        -16.176721845214        25.8177768548785   -8.26874111305186E-10                       0 
     0.0110075187969925                       0                       0        39.6881500146853        1028.13566841587   -3.44728166843478E-08                       0        37287762.8233061        795545.337340603        494.605417350324       0.202339326346433       -16.2854741536627        25.9053579260409   -8.68592234883535E-10                       0 
       0.01131328320802                       0                       0        39.6823125648926        1031.67166196245   -3.62998378030152E-08                       0        37282260.6503607        795449.644088224        494.602955676602         0.2030589301724       -16.4012872871723         25.998274052556   -9.14762329353514E-10                       0 
     0.0116190476190476                       0                       0         39.676107681811        1035.41581634763   -3.38061906648325E-08                       0        37276406.8597064         795347.93456839        494.600335985126       0.203821211719419       -16.5244200939197        26.0967101619612   -8.52053627766261E-10                       0 
     0.0119248120300752                       0                       0        39.6695189011364        1039.37262027857   -3.33882216961394E-08                       0        37270193.8715745         795239.93527039        494.597560111178       0.204627108641481       -16.6551398208297        26.2007876077988   -8.41659278848722E-10                       0 
     0.0122305764411028                       0                       0        39.6625296553871        1043.55238710239    -3.3889043678385E-08                       0        37263601.0975132        795125.363630486        494.594622616813       0.205478757253829       -16.7938090690753        26.3107874703631   -8.54434473954886E-10                       0 
     0.0125363408521303                       0                       0        39.6551368969596        1047.96014532852   -3.33436627990799E-08                       0        37256628.7271378        795004.140582578        494.591480071343        0.20637723789336       -16.9405724884619        26.4268443762517   -8.40840952236317E-10                       0 
     0.0128421052631579                       0                       0        39.6472842567127        1052.61526011667   -3.30335967890251E-08                       0        37249222.7367743         794875.35526198        494.588181345056       0.207326614551713       -17.0964461892993        26.5494927869292   -8.33186498621717E-10                       0 
     0.0131478696741855                       0                       0        39.6389747139157        1057.51426430639   -3.24748565663972E-08                       0        37241382.7620791        794739.054444736        494.584665401141       0.208326243006857       -17.2614094209888        26.6786505149645   -8.19265831673588E-10                       0 
      0.013453634085213                       0                       0        39.6301779418527        1062.67124131307   -3.27667934381248E-08                       0        37233085.5666375        794594.772899314         494.58095372385       0.209379082583535       -17.4360380347281        26.8147001188987   -8.26814599233063E-10                       0 
     0.0137593984962406                       0                       0        39.6208826139117        1068.08781655687   -3.00350277643473E-08                       0        37224318.2778263         794442.29074633        494.577038295336       0.210485548326859        -17.620586905515        26.9576994667744   -7.58061659955367E-10                       0 
     0.0140651629072682                       0                       0        39.6110510530561        1073.78536901234   -3.35278674580911E-08                       0        37215046.8128327        794281.094538406        494.572910240064       0.211650103186035       -17.8157484132221        27.1082284027157   -8.46428277538638E-10                       0 
     0.0143709273182957                       0                       0        39.6006723296909        1079.76780264036   -3.38888540497149E-08                       0         37205258.758971        794110.813319365        494.568512805143        0.21287362808011       -18.0218381324322        27.2664022134008   -8.55768599202183E-10                       0 
     0.0146766917293233                       0                       0        39.5897131422003        1086.04024187785    -3.3491921192813E-08                       0         37194924.039254        793931.021776095        494.563898994114       0.214157342786736       -18.2394586366106        27.4323868111776   -8.45975786755964E-10                       0 
     0.0149824561403509                       0                       0        39.5781650764842         1092.6122147072   -3.51070456459247E-08                       0        37184033.2524976        793741.519551549        494.559009212647       0.215503255267177       -18.4688267525439        27.6064399605976   -8.87028131319322E-10                       0 
     0.0152882205513784                       0                       0        39.5659727594002        1099.49174881653   -3.37147324235419E-08                       0        37172532.4407852        793541.461912918        494.553884324796       0.216913263032399       -18.7110078402694        27.7888213190872   -8.52114378123983E-10                       0 
      0.015593984962406                       0                       0        39.5531403360972        1106.69704059903   -3.01345002526565E-08                       0        37160429.6212306        793330.760289054        494.548435295968       0.218391121786065       -18.9659930517095          27.98000637001    -7.6186929286827E-10                       0 
     0.0158997493734336                       0                       0        39.5396065250453         1114.2230179385   -2.99013058254189E-08                       0        37147664.8691075        793108.626181759         494.54271871406       0.219936107723602       -19.2348753647938        28.1799229399043   -7.56236151536267E-10                       0 
     0.0162055137844612                       0                       0         39.525372282246        1122.08897516804   -3.06689029034763E-08                       0        37134240.3166698        792874.891201109         494.53671271655       0.221552204270749       -19.5177631060957        28.3890811847863   -7.75935336329555E-10                       0 
     0.0165112781954887                       0                       0        39.5103943454955        1130.29173572605   -3.29024780395605E-08                       0        37120112.6764708        792628.971538761        494.530366589617       0.223239098404602        -19.815433522671        28.6074540608662   -8.32755205006365E-10                       0 
     0.0168170426065163                       0                       0        39.4946219577557        1138.84946042814   -3.05250574727027E-08                       0         37105237.477674        792369.926881764        494.523725153478       0.225000765160136        -20.128967031077        28.8355599714352   -7.72890363203223E-10                       0 
     0.0171228070175439                       0                       0        39.4780418479902        1147.77813524985   -3.26949661862537E-08                       0        37089599.8423236        792097.615926383        494.516707563229       0.226840557169977       -20.4585855020152        29.0738390483735   -8.28181919057136E-10                       0 
     0.0174285714285714                       0                       0        39.4606263100307        1157.07060196375   -3.21932058046091E-08                       0        37073173.1243172        791811.455034017        494.509334010948       0.228757389981289       -20.8049663639182        29.3221601827177   -8.15839049066057E-10                       0 
      0.017734335839599                       0                       0        39.4423138686994        1166.74297414703    -3.3883521227694E-08                       0        37055904.6517687        791510.617917533        494.501570001918        0.23075486661174       -21.1691007679265        29.5810011580378    -8.5906419898433E-10                       0 
     0.0180401002506266                       0                       0        39.4230997647852         1176.8063213495   -3.66914162918406E-08                       0        37037779.0380748        791194.759527405        494.493445289687       0.232835425507483       -21.5514046582245        29.8506808496848   -9.30709076071452E-10                       0 
     0.0183458646616541                       0                       0        39.4028682899572        1187.27684575042   -3.40827505889778E-08                       0        37018702.3533732        790862.291899999        494.484886905146       0.235003056579791       -21.9538421372029        30.1317376596728   -8.64982293949397E-10                       0 
     0.0186516290726817                       0                       0        39.3816640593233        1198.15727631554   -3.34219018799456E-08                       0        36998704.1663556        790513.632411433        494.475890873042       0.237258353270273       -22.3758834251506        30.4242480352249    -8.4865877011021E-10                       0 
     0.0189573934837093                       0                       0        39.3593782902054        1209.45569922238   -3.27591075423707E-08                       0        36977686.2599345        790147.120634178        494.466446867245       0.239603615224847       -22.8194909962681        30.7285310838099   -8.32301432884186E-10                       0 
     0.0192631578947368                       0                       0        39.3360165754745        1221.18445000137   -3.10425509505938E-08                       0        36955651.3407927        789762.798860147        494.456523682115       0.242041602633083        -23.284638938147          31.04494897245   -7.89165072138177E-10                       0 
     0.0195689223057644                       0                       0        39.3114668060753        1233.35887034481   -2.96903292164329E-08                       0        36932499.3258179        789358.894204949        494.446091495642       0.244576167516946       -23.7735641516036        31.3740243275016   -7.55255347697405E-10                       0 
      0.019874686716792                       0                       0        39.2856911350384        1245.99755389431   -3.40780024142295E-08                       0        36908189.0315015        788934.681943796        494.435160228481       0.247211582080447       -24.2870305219744        31.7163270855887   -8.67452501336608E-10                       0 
     0.0201804511278195                       0                       0        39.2586358942439        1259.09332368647   -3.44686441515676E-08                       0        36882675.8463089         788489.28278187        494.423685847589       0.249947015920415       -24.8260991546336        32.0717629196383   -8.77990666675828E-10                       0 
     0.0204862155388471                       0                       0        39.2302539419209        1272.66301331011   -3.24430903242883E-08                       0        36855905.9092553         788021.91040585        494.411603792092        0.25278641386481       -25.3918058851573        32.4408620206361   -8.26997438994369E-10                       0 
     0.0207919799498747                       0                       0        39.2004803418817        1286.72542129218   -2.95550926126514E-08                       0        36827829.8065474        787531.479911476        494.398944502972       0.255734285403306       -25.9854343116586        32.8242270776065   -7.53947394965727E-10                       0 
     0.0210977443609023                       0                       0        39.1691745247191        1301.31213053189   -3.65335002818261E-08                       0        36798304.9524065        787015.688209586         494.38562331138       0.258798194888436        -26.609766911306        33.2228696372338   -9.32722201990893E-10                       0 
     0.0214035087719298                       0                       0        39.1363135435777        1316.40791546497   -3.52868188642062E-08                       0        36767313.7115677        786474.034338898        494.371646794814       0.261975637838007       -27.2653635286489        33.6364936491892   -9.01635412493596E-10                       0 
     0.0217092731829574                       0                       0        39.1018301207481        1332.04112434063   -3.68356835517836E-08                       0        36734793.4579226        785905.458628414        494.356943592619       0.265273230993599       -27.9535734274962        34.0659651584418   -9.42032182351367E-10                       0 
      0.022015037593985                       0                       0        39.0655957327246        1348.22054804923   -3.60165471893354E-08                       0        36700620.4623706        785307.837489962        494.341503379291       0.268693927471596       -28.6769573846296         34.511716745525   -9.21944944115459E-10                       0 
     0.0223208020050125                       0                       0        39.0275627438833        1364.97281326773   -3.32936910545138E-08                       0        36664754.0660731        784680.250899447        494.325273084706       0.272244105170894       -29.4365801522525        34.9745914884932   -8.53075818937643E-10                       0 
     0.0226265664160401                       0                       0        38.9875466569585        1382.31425032373   -3.30673340981718E-08                       0        36627017.1280075        784019.648473803        494.308178869428        0.27592876400748       -30.2361199641977        35.4552916231521   -8.48138396209141E-10                       0 
     0.0229323308270677                       0                       0         38.945522475439         1400.2584116464   -3.43034754364639E-08                       0        36587388.3622545        783325.681770649        494.290236597023       0.279751442464129       -31.0761025356361        35.9543020396068   -8.80814556733715E-10                       0 
     0.0232380952380952                       0                       0          38.90135894639        1418.81730596138    -3.6017371444569E-08                       0        36545738.7941855        782596.001872989        494.271339024586       0.283716190697515       -31.9593348460723        36.4721945402463   -9.25862740712147E-10                       0 
     0.0235438596491228                       0                       0         38.854924113611        1438.01239040146   -3.59212489062585E-08                       0        36501949.0552711        781828.469210679         494.25145678218       0.287828990756508       -32.8883717463781        37.0097836440757   -9.24497077768632E-10                       0 
     0.0238496240601504                       0                       0        38.8060131943105        1457.87409401048   -3.95025618496763E-08                       0        36455826.0024242        781019.553820053        494.230473562824       0.292098430805906       -33.8674454463276        37.5682679745259   -1.01796863636571E-09                       0 
     0.0241553884711779                       0                       0        38.7545310821357        1478.40555793538   -3.73531233394363E-08                       0        36407276.0746619         780167.77483019         494.20842485167        0.29652666880809       -34.8984639088032        38.1479659408932    -9.6385853577413E-10                       0 
     0.0244611528822055                       0                       0        38.7004009716544        1499.63523804948   -3.60635307707111E-08                       0         36356231.297414        779271.601647157        494.185169613271        0.30112112397223       -35.9831876553344        38.7498902369255    -9.3189554251181E-10                       0 
     0.0247669172932331                       0                       0        38.6433946075871        1521.58357883997   -4.02490546652212E-08                       0        36302474.7703013        778327.344338862        494.160660782945       0.305888708603897       -37.1261310832727        39.3750107809921   -1.04154605370195E-09                       0 