VARIABLES = "X"
 "Y"
 "Z"
 "Density"
 "Momentum_X"
 "Momentum_Y"
 "Momentum_Z"
 "Energy"
 "Pressure"
 "Temperature"
 "Mach"
 "Pressure_Coefficient"
 "Velocity_X"
 "Velocity_Y"
 "Velocity_Z"
ZONE
DT=(DOUBLE,DOUBLE,DOUBLE,DOUBLE,DOUBLE,DOUBLE,DOUBLE,DOUBLE,DOUBLE,DOUBLE,DOUBLE,DOUBLE,DOUBLE,DOUBLE,DOUBLE)
                      0                       0                       0        40.9896659851074        1072.33544921875   -3.14965618031238E-08                       0                42429344               893842.25        523.833129882812       0.192653492093086       -14.7348823547363        26.1611194610596   -7.68402508288801E-10                       0 
   0.000305764411027569                       0                       0        40.9896214420626        1072.35598273079    -2.4493488151834E-08                       0        42429297.2932323        893841.457706754        523.833082309042       0.192657346340149       -14.7357253908963        26.1616473903169    -5.9755344166804E-10                       0 
   0.000611528822055138                       0                       0        40.9895140664645        1072.42873143387    -2.7353256060183E-08                       0        42429186.9373458        893839.476033879        523.833034735279        0.19267083532648       -14.7377834200091        26.1634894062283   -6.67323252106359E-10                       0 
   0.000917293233082707                       0                       0        40.9893337048828        1072.55056281876   -2.94967935215377E-08                       0        42428999.5789312        893836.179980914        523.832987161496       0.192693422613419       -14.7412335176465        26.1665762280103    -7.1962122476689E-10                       0 
    0.00122305764411028                       0                       0        40.9890811987193        1072.72177666366   -3.07217295342533E-08                       0        42428734.8070283        893831.514411219        523.832878552588       0.192725189719774       -14.7460836776619        26.1709169993139   -7.49510083166843E-10                       0 
    0.00152882205513784                       0                       0        40.9887523412464        1072.94410951759    -3.1864018335082E-08                       0        42428393.9749748        893825.431548273        523.832708908518       0.192766403116738       -14.7523783818044        26.1765478744779   -7.77384408120545E-10                       0 
    0.00183458646616541                       0                       0        40.9883508896763        1073.21774319046   -3.21401850876358E-08                       0        42427977.0224932        893818.012216913        523.832539264397       0.192817151105946       -14.7601132583704        26.1834834976856    -7.8412981507385E-10                       0 
    0.00214035087719298                       0                       0        40.9878679241696        1073.54505896064   -3.35672099553285E-08                       0         42427474.596454        893809.119516891        523.832369620328       0.192877841104853       -14.7693693435571        26.1917755400791   -8.18954792662384E-10                       0 
    0.00244611528822055                       0                       0        40.9873059686688        1073.92637811161   -3.39834980240378E-08                       0         42426890.285758        893798.730420577        523.832138941114       0.192948557263109       -14.7801684321291        26.2014387835765   -8.29122518942032E-10                       0 
    0.00275187969924812                       0                       0        40.9866599748324        1074.36354292848   -3.41834416322849E-08                       0        42426220.0900752        893786.867008568        523.831847226674       0.193029643916128        -14.792555503502        26.2125192394879   -8.34013805914424E-10                       0 
    0.00305764411027569                       0                       0         40.985926807586        1074.86046706425   -3.41451907665838E-08                       0        42425459.1881912        893773.303262084        523.831568055976       0.193121799262176       -14.8066380873542        26.2251111809184   -8.33095560583288E-10                       0 
    0.00336340852130326                       0                       0        40.9851033681612        1075.41788737005   -3.39398139755683E-08                       0        42424606.0451124         893758.13737468         523.83122876772       0.193225185972754       -14.8224460248136        26.2392385239057   -8.28101218338137E-10                       0 
    0.00366917293233083                       0                       0        40.9841861291919        1076.03830547904   -3.36230630001655E-08                       0        42423651.3681404        893741.225089022        523.830828444308       0.193340256059692       -14.8400513119873        26.2549634420333   -8.20391146551203E-10                       0 
     0.0039749373433584                       0                       0          40.98317127609        1076.72446989101   -3.32521253213619E-08                       0        42422598.3353307         893722.48276037        523.830420013427       0.193467545988973       -14.8595375260197        26.2723571555248   -8.11360548752543E-10                       0 
    0.00428070175438596                       0                       0        40.9820501760946         1077.4803553527   -3.28575948915762E-08                       0        42421433.8945728        893701.861839187        523.829972116501       0.193607763521429       -14.8810206326483        26.2915179631023   -8.01755756973213E-10                       0 
    0.00458646616541353                       0                       0        40.9808208496567        1078.30988864169    -3.2473364389083E-08                       0        42420158.7370803        893679.182805005         523.82946318442       0.193761657026397        -14.904615433663        26.3125487123358   -7.92403926071548E-10                       0 
     0.0048922305764411                       0                       0        40.9794761826714        1079.21535335011   -3.21135499533692E-08                       0        42418763.2177208        893654.424649669        523.828893216817       0.193929663055462       -14.9303985478362        26.3355086147741   -7.83649522404305E-10                       0 
    0.00519799498746867                       0                       0        40.9780146000739        1080.20088598572   -3.17900170440806E-08                       0        42417243.6397885        893627.431089987        523.828307952791       0.194112526622821       -14.9584848544249        26.3604981349802   -7.75782270928573E-10                       0 
    0.00550375939849624                       0                       0        40.9764221873144        1081.27089282409   -3.15993872867029E-08                       0        42415589.1120957        893598.101021609        523.827629375908       0.194311100931961       -14.9890246769273        26.3876354072071   -7.71160181547741E-10                       0 
    0.00580952380952381                       0                       0        40.9746971129007        1082.43215224938   -3.09377535354478E-08                       0         42413799.237953        893566.249997486        523.826901390374       0.194526604970277       -15.0221490432104        26.4170878297351    -7.5504535136427E-10                       0 
    0.00611528822055138                       0                       0        40.9728287436187        1083.68668833348   -3.05143314449386E-08                       0        42411859.9403299        893531.791988539        523.826114205394       0.194759448610202       -15.0579936409171        26.4489097468258   -7.44745498620885E-10                       0 
    0.00642105263157895                       0                       0        40.9708101372876         1085.0401804134   -3.02378276792623E-08                       0         42409763.157885        893494.592105089        523.825304533301       0.195010707567787       -15.0967410741913        26.4832491625333   -7.38033417979136E-10                       0 
    0.00672681704260652                       0                       0        40.9686325364371        1086.49757396457   -2.99741112943693E-08                       0        42407502.0134989        893454.441701895        523.824408738472       0.195281278143334       -15.1385235103016        26.5202297232866   -7.31635628006473E-10                       0 
    0.00703258145363408                       0                       0        40.9662876075992        1088.06538537781   -2.96655332236746E-08                       0        42405065.4129773        893411.162897374        523.823447473476       0.195572393945068       -15.1835447356791        26.5600178649197    -7.2414499089252E-10                       0 
    0.00733834586466165                       0                       0        40.9637635883101        1089.75078201303   -2.94193858751885E-08                       0        42402445.0225116        893364.576596946        523.822373010145       0.195885395314426       -15.2320253982798        26.6027994665121   -7.18180733692653E-10                       0 
    0.00764411027568922                       0                       0         40.961048710263        1091.55767842635   -2.91573627145558E-08                       0        42399626.4469892          893314.5388627        523.821264434635       0.196221006738546       -15.2841118026813        26.6486740065422   -7.11831392022077E-10                       0 
    0.00794987468671679                       0                       0        40.9581375871707        1093.49260979044   -2.88796535527154E-08                       0        42396603.2665918        893260.840980706        523.820060710178       0.196580480887864        -15.339998126265        26.6978103827352   -7.05101709622036E-10                       0 
    0.00825563909774436                       0                       0        40.9550173171419        1095.56235182015   -2.86787505244219E-08                       0        42393360.9601732         893203.27157685        523.818764592475       0.196965055959118       -15.3999103156371        26.7503812477918   -7.00250023052758E-10                       0 
    0.00856140350877193                       0                       0        40.9516703287556        1097.77608237035   -2.66865450468891E-08                       0        42389885.2631365        893141.553727692        523.817357113478       0.197376484936176       -15.4641501781989        26.8066236599809   -6.51659195320464E-10                       0 
     0.0088671679197995                       0                       0         40.948096485659        1100.14179578893   -2.81236920173781E-08                       0        42386174.4686451         893075.63929841        523.815891352902       0.197816232472654       -15.5327865410054         26.866738563785   -6.86813116100819E-10                       0 
    0.00917293233082707                       0                       0        40.9442695078443         1102.6642264658   -2.75668466165529E-08                       0        42382198.9449805        893005.011235754         523.81428011459       0.198285239252411       -15.6062772087567        26.9308577326619   -6.73277295406491E-10                       0 
    0.00947869674185464                       0                       0        40.9401804867504        1105.35051173553   -2.71874285366775E-08                       0        42377953.3006176        892929.585322701        523.812583673748       0.198784826032038       -15.6847568513463        26.9991613492825   -6.64076917593723E-10                       0 
     0.0097844611528822                       0                       0        40.9358185196319        1108.21005278688   -2.68278238506849E-08                       0        42373423.9177554        892849.082670375        523.810768681134       0.199316764887381       -15.7685347531742        27.0718919322357   -6.55363114599426E-10                       0 
     0.0100902255639098                       0                       0        40.9311579377338        1111.25341639419   -2.64820293656263E-08                       0          42368585.41458        892763.145225344        523.808858542046       0.199883088011162       -15.8579782493468        27.1493277275055    -6.4698946998543E-10                       0 
     0.0103959899749373                       0                       0        40.9261966548743        1114.48532360269    -2.6135526333724E-08                       0        42363431.6035933        892671.582475037        523.806792220487       0.200484666447876        -15.953267464379        27.2315873965955   -6.38601375450062E-10                       0 
     0.0107017543859649                       0                       0         40.920913224115        1117.91406703775   -2.58047091037805E-08                       0        42357945.1189622        892574.119449373        523.804586844042       0.201123085384565       -16.0547033652161        27.3188934936436   -6.30599495155669E-10                       0 
     0.0110075187969925                       0                       0        40.9152938687385        1121.54815614941   -2.54877980962899E-08                       0        42352108.6273617        892470.474079069         523.80225572923       0.201799971869436       -16.1626003443974        27.4114643564658   -6.22940592407383E-10                       0 
       0.01131328320802                       0                       0        40.9093153038668        1125.40073691915   -2.51848667508388E-08                       0        42345902.3544584        892360.141265268        523.799768432961       0.202517838945182       -16.2774283021426        27.5096461969183   -6.15626677948017E-10                       0 
     0.0116190476190476                       0                       0        40.9029604621802        1129.47821157033    -2.4914244406757E-08                       0        42339301.5267054        892242.898861003        523.797124954656       0.203277901901314       -16.3994514293336        27.6136071794339   -6.09106080380666E-10                       0 
     0.0119248120300752                       0                       0        40.8962180707594        1133.78770667591   -2.47216059202354E-08                       0        42332299.9175754        892118.444687639        523.794325293879       0.204081533661576       -16.5289680500518         27.723534425961   -6.04496164768741E-10                       0 
     0.0122305764411028                       0                       0        40.8890684926439        1138.33835898249   -2.32411454070778E-08                       0        42324872.8662588        891986.519474936        523.791369442985       0.204930495056389       -16.6663029506599        27.8396746575853   -5.68395378419136E-10                       0 
     0.0125363408521303                       0                       0        40.8814928390889        1143.14434969872   -2.35492036122822E-08                       0        42317007.2127282        891846.688815323        523.788257415093       0.205827479231748       -16.8118111295425        27.9623938600843   -5.76035808959532E-10                       0 
     0.0128421052631579                       0                       0        40.8734520359305        1148.21453540832   -2.32605232344571E-08                       0         42308656.420976        891698.249998637        523.784883197953       0.206774276346807       -16.9662841007972        28.0919410315898   -5.69086313062722E-10                       0 
     0.0131478696741855                       0                       0        40.8649408783949        1153.55246254294   -2.30176818030042E-08                       0        42299820.7677498        891541.210473523        523.781350197959       0.207771603340191       -17.1297451840465         28.228413728402    -5.6326225407673E-10                       0 
      0.013453634085213                       0                       0        40.8559415064369        1159.16803607017   -2.27652873439533E-08                       0        42290473.1847883         891375.06893336        523.777618022608       0.208821379584801       -17.3026447091238        28.3720797884291   -5.57208668453489E-10                       0 
     0.0137593984962406                       0                       0        40.8464281957367         1165.0706234309   -2.25051478807746E-08                       0        42280594.9986267        891199.450029872        523.773688979517       0.209925452551991       -17.4854031681349        28.5231960477134   -5.50969757165534E-10                       0 
     0.0140651629072682                       0                       0        40.8363712714473        1171.27470384481   -2.23177078868493E-08                       0        42270149.6092909        891013.786883088        523.769508914447       0.211086635978255       -17.6786675195417         28.682146249572   -5.46515443405627E-10                       0 
     0.0143709273182957                       0                       0         40.825746266034        1177.78653894528   -2.22201548952698E-08                       0        42259116.5436997        890817.624885031        523.765068341969       0.212306237761401       -17.8828326056555        28.8491138639638   -5.44268156188541E-10                       0 
     0.0146766917293233                       0                       0        40.8145351078799        1184.61327064222   -2.20585550655244E-08                       0        42247474.5065381        890610.625653082        523.760401679661       0.213585691000314       -18.0982809240167        29.0242996104774   -5.40458288195218E-10                       0 
     0.0149824561403509                       0                       0        40.8027133491428        1191.76453974793   -2.19987986695058E-08                       0        42235199.2160748         890392.26952346        523.755506008757       0.214926970107751       -18.3255090758772        29.2079747297762   -5.39150427620996E-10                       0 
     0.0152882205513784                       0                       0        40.7902524640509        1199.24931649433   -1.99257390165551E-08                       0        42222258.4445539        890162.133252511        523.750297981394       0.216331871479946       -18.5650259409525        29.4003917628202   -4.88492511900365E-10                       0 
      0.015593984962406                       0                       0        40.7771258215987        1207.08959776164   -2.18467148422119E-08                       0        42208627.5757647         889919.67616521        523.744823483213       0.217804619586835       -18.8173856392329        29.6021277961636   -5.35758932146332E-10                       0 
     0.0158997493734336                       0                       0        40.7632868918413        1215.28317266805    -2.1491301508402E-08                       0        42194255.9451171        889664.047042884        523.739099329294       0.219345110299776       -19.0834282956648        29.8131800643046   -5.27221941399955E-10                       0 
     0.0162055137844612                       0                       0        40.7487253881971        1223.83824805778   -2.13562093465907E-08                       0         42179135.633203        889395.019140165        523.733020747542        0.22095501714943       -19.3634388939264        30.0337811300165    -5.2409513734873E-10                       0 
     0.0165112781954887                       0                       0        40.7334071689936        1232.76444322987   -2.12539975454538E-08                       0        42163226.2084285        889111.940954546        523.726652898562       0.222636369619913       -19.6580177554931         30.264213249761    -5.2178295575797E-10                       0 
     0.0168170426065163                       0                       0        40.7172879783407        1242.07825098766   -2.11726262144349E-08                       0        42146487.1398048        888814.042127761        523.719922663243       0.224392485263433       -19.9680694356093        30.5049388488181   -5.19991069014251E-10                       0 
     0.0171228070175439                       0                       0        40.7003314182259        1251.78767472783   -2.11109316037615E-08                       0        42128878.8577528        888500.688250311        523.712874555417       0.226225154106178       -20.2942136385075        30.7562073579195   -5.18691867807559E-10                       0 
     0.0174285714285714                       0                       0        40.6825147155237         1261.8982221564   -2.10634265251958E-08                       0          42110377.69341        888171.374628147        523.705426888924       0.228135632635927       -20.6369714519296        31.0181999427062   -5.17751333306816E-10                       0 
      0.017734335839599                       0                       0         40.663798575947        1272.41973630163   -2.10393251281476E-08                       0        42090941.4011472        887825.370528137        523.697645441371       0.230126099186032       -20.9970757089665        31.2912186717998   -5.17396894030943E-10                       0 
     0.0180401002506266                       0                       0        40.6441444528961        1283.36323214546   -2.10472826604369E-08                       0         42070533.511797        887461.915490958        523.689429558741       0.232198916161198       -21.3753343665598        31.5756011382407    -5.1784294547807E-10                       0 
     0.0183458646616541                       0                       0        40.6234784276719        1294.75030708844   -2.11482727156172E-08                       0        42049070.8017333        887079.737330791        523.680840274287       0.234358615856374        -21.773086386344          31.87197484911    -5.2059240165256E-10                       0 
     0.0186516290726817                       0                       0        40.6017938032874        1306.58165780928    -2.0387359177981E-08                       0        42026554.2486108        886678.666341109        523.671783207026       0.236605536227424       -22.1905089883549        32.1803981781647   -5.02131363507992E-10                       0 
     0.0189573934837093                       0                       0        40.5790325926925        1318.87450379304   -2.03287480972962E-08                       0        42002919.0486155        886257.546004392        523.662257591667       0.238943399251832       -22.6287896473427        32.5013838178804   -5.00966897253978E-10                       0 
     0.0192631578947368                       0                       0        40.5551386081743        1331.62980874968   -2.04976610672766E-08                       0        41978106.2846603        885815.410629599        523.652263428209       0.241372898896642       -23.0889401437002         32.835048890757   -5.05426993609098E-10                       0 
     0.0195689223057644                       0                       0        40.5300502593326        1344.86851906399   -2.05995199501256E-08                       0        41952051.8354968         885351.09874575        523.641800724158       0.243898500234348        -23.572202246573        33.1820127693292   -5.08253019387075E-10                       0 
      0.019874686716792                       0                       0        40.5037066664938        1358.60405414365   -2.06868315346059E-08                       0        41924698.4812586        884863.427633412        523.630767884493       0.246523267479585       -24.0797214459916        33.5427148299264   -5.10739279743819E-10                       0 
     0.0201804511278195                       0                       0        40.4760636277007        1372.84279925591   -2.07755980159689E-08                       0        41895995.0301864        884351.677903011        523.619198432655       0.249248942665283       -24.6123639516722        33.9174067839958    -5.1328114170556E-10                       0 
     0.0204862155388471                       0                       0        40.4470620593755        1387.59835523736   -2.08756458249218E-08                       0        41865875.5288304        883814.548313665        523.607085782983       0.252078731414553       -25.1713826779406         34.306537435462   -5.16122706968294E-10                       0 
     0.0207919799498747                       0                       0        40.4166280768511        1402.88487153641   -2.09843186699637E-08                       0        41834274.4934621        883250.786045737        523.594348402514       0.255015919153889       -25.7581124631479        34.7105871685012     -5.192001421478E-10                       0 
     0.0210977443609023                       0                       0        40.3846445438375        1418.73259195285    -2.1106138163875E-08                       0        41801066.0000639        882658.195624292        523.580911947897        0.25806732697491       -26.3748515904172        35.1305016476063   -5.22627840275394E-10                       0 
     0.0214035087719298                       0                       0         40.351076514716        1435.14186395437   -2.12524563714025E-08                       0        41766208.0219955        882036.090148718         523.56685060929       0.261233569929778       -27.0223627843595        35.5663968106512   -5.26688831496313E-10                       0 
     0.0217092731829574                       0                       0        40.3158364719911        1452.12824772898   -2.14994074265852E-08                       0        41729612.9008622        881382.765683828        523.552082700532       0.264518534816853       -27.7023151432294        36.0188181712278   -5.33274760257531E-10                       0 
      0.022015037593985                       0                       0        40.2788401195682        1469.70712139164   -1.96994207361757E-08                       0        41691197.8998623        880696.694975782        523.536541221088       0.267926072858904       -28.4163195434718         36.488323736525   -4.89079207118206E-10                       0 
     0.0223208020050125                       0                       0        40.2399979660476          1487.910047357    -2.2023671332433E-08                       0        41650865.2704819        879976.153079806        523.520191915528       0.271463219854892       -29.1662742811541        36.9759014985342   -5.47307798771153E-10                       0 
     0.0226265664160401                       0                       0        40.1991335337405        1506.75346087416   -2.19481645464473E-08                       0        41608433.8829741        879217.882352723        523.503012878157       0.275134713376538       -29.9554297215645        37.4822509769491   -5.45986088451972E-10                       0 
     0.0229323308270677                       0                       0        40.1562050777228        1526.24433453656   -2.21049259144654E-08                       0        41563854.2796806        878420.974380687        523.484957789897       0.278942837989409       -30.7848226486752        38.0077032512562   -5.50473675045884E-10                       0 
     0.0232380952380952                       0                       0        40.1110884575074        1546.40222859486    -2.2303422662888E-08                       0        41517008.6911042        877583.227900405        523.465919102711       0.282892724123332       -31.6567375101544        38.5530020399311   -5.56041499449072E-10                       0 
     0.0235438596491228                       0                       0         40.063662606641        1567.24696494503   -2.25185746586369E-08                       0        41467766.1698674        876702.242065853        523.445914254471       0.286989689887815        -32.573623997014        39.1189149481985   -5.62069805472752E-10                       0 
     0.0238496240601504                       0                       0        40.0137284794632        1588.81842857336   -2.27483235891053E-08                       0        41415913.1888085        875774.248805956        523.424852408452       0.291243547149901       -33.5394405629651        39.7068506853232   -5.68513184425635E-10                       0 
     0.0241553884711779                       0                       0        39.9611935285339        1611.12099856513   -2.30113834790785E-08                       0        41361365.4486626        874797.578205374         523.40269508816       0.295656661314876       -34.5559389121158        40.3171648492646   -5.75843562282647E-10                       0 
     0.0244611528822055                       0                       0         39.905914247519        1634.17422140586   -2.33483473667843E-08                       0        41303967.3875377        873769.412840404        523.379300723255       0.300234781439016       -35.6260259604989         40.950706323673   -5.85085358149545E-10                       0 
     0.0247669172932331                       0                       0        39.8477313601917        1658.00061994532   -2.19005604381763E-08                       0        41243556.5341363         872686.70877948        523.354656896754       0.304984435758978       -36.7528275623173        41.6084236982591   -5.49609874795775E-10                       0 