VARIABLES = "X"
 "Y"
 "Z"
 "Density"
 "Momentum_X"
 "Momentum_Y"
 "Momentum_Z"
 "Energy"
 "Pressure"
 "Temperature"
 "Mach"
 "Pressure_Coefficient"
 "Velocity_X"
 "Velocity_Y"
 "Velocity_Z"
ZONE
DT=(DOUBLE,DOUBLE,DOUBLE,DOUBLE,DOUBLE,DOUBLE,DOUBLE,DOUBLE,DOUBLE,DOUBLE,DOUBLE,DOUBLE,DOUBLE,DOUBLE,DOUBLE)
                      0                       0                       0        201.238052368164        2626.73950195312     6.7220793376066E-09                       0               198539440             1977673.375        521.051086425781       0.206674471497536       -15.5879755020142        13.0528964996338    3.34036166782514E-11                       0 
   0.000305764411027569                       0                       0        201.237807998079        2626.79004763013    7.94050720895922E-11                       0        198539196.230572        1977672.36027567        521.051025390625       0.206678758326437        -15.588845704747        13.0531635356196    3.94583338782987E-13                       0 
   0.000611528822055138                       0                       0        201.237203688862        2626.96748523739    9.20450668728655E-11                       0        198538591.037608        1977669.99624066        521.050964355469       0.206693480635908       -15.5910209688729        13.0540838002352    4.57395836627932E-13                       0 
   0.000917293233082707                       0                       0        201.236193664007        2627.26408492012    4.64463993611706E-11                       0        198537592.420966         1977665.9078944        521.050821634152       0.206718131789891       -15.5946646958779        13.0556242377652    2.30805295746355E-13                       0 
    0.00122305764411028                       0                       0        201.234760867682        2627.68117863756   -3.20762906862911E-11                       0        198536168.381011        1977660.20551402        521.050590954932       0.206752780160584       -15.5997885962468        13.0577893220401   -1.59397351415638E-13                       0 
    0.00152882205513784                       0                       0        201.232907555952         2628.2222462315   -3.23077539525496E-12                       0        198534329.985161        1977652.79542686        521.050360275706       0.206797737782119       -15.6064376967331        13.0605985045706   -1.60548873199558E-14                       0 
    0.00183458646616541                       0                       0        201.230632810323        2628.88867197514    1.55890442668771E-11                       0        198532071.338013         1977643.7565776        521.050027259263       0.206853104385469       -15.6146116268937        13.0640584621031    7.74685795991134E-14                       0 
    0.00214035087719298                       0                       0        201.227906344027        2629.68546555378    9.89729690970867E-12                       0        198529374.315589         1977632.8114027        521.049660130516       0.206919304900721       -15.6243908872662        13.0681946238855     4.9184420066569E-14                       0 
    0.00244611528822055                       0                       0        201.224726588745        2630.61390529932   -5.37060894927798E-11                       0        198526205.754622         1977620.1970561          521.0492122335       0.206996445400568         -15.63580038707        13.0730152078711   -2.66896172824806E-13                       0 
    0.00275187969924812                       0                       0        201.221078283872        2631.67888923649   -7.16550623576175E-11                       0        198522586.585643        1977605.66353051        521.048703301116       0.207084924786976       -15.6488886124343        13.0785438793945   -3.56101158255311E-13                       0 
    0.00305764411027569                       0                       0        201.216933631659        2632.88884652312    3.31846020128084E-12                       0        198518478.958586        1977589.03446596        521.048133333964       0.207185488753332       -15.6637710537784        13.0848277319991    1.64921397949613E-14                       0 
    0.00336340852130326                       0                       0        201.212271477642         2634.2467545824    2.62320989843431E-11                       0        198513853.874685        1977570.48245613        521.047467301065       0.207298330533228       -15.6804781509898        13.0918783603787    1.30370255186678E-13                       0 
    0.00366917293233083                       0                       0        201.207093201449        2635.75803872783    3.83180065034507E-12                       0        198508712.539836        1977549.84209919        521.046767155692       0.207423945715682        -15.699087478251        13.0997271596676    1.90439776576856E-14                       0 
     0.0039749373433584                       0                       0         201.20135302733        2637.42996977137   -2.47907804959921E-12                       0        198503006.954653        1977526.96270828        521.045979970294       0.207562913713698       -15.7196873953055        13.1084108896469   -1.23213436444131E-14                       0 
    0.00428070175438596                       0                       0         201.19501508657        2639.27196006672     2.7515300873876E-11                       0        198496732.911394        1977501.69736486        521.045070715002       0.207716045171201       -15.7424011095227        13.1179788669906    1.36759406332532E-13                       0 
    0.00458646616541353                       0                       0        201.188070771791        2641.29358331287    5.54937647154642E-11                       0        198489823.038891        1977473.94831346        521.044119239933       0.207884132046403       -15.7673511817002        13.1284806941774    2.75830470287567E-13                       0 
     0.0048922305764411                       0                       0        201.180464013816        2643.50087733525    5.33924443536328E-11                       0        198482281.622321        1977443.64034389        521.043040339883       0.208067671739309       -15.7946183188739        13.1399481352887    2.65395820321009E-13                       0 
    0.00519799498746867                       0                       0        201.172189663692        2645.90333880377    4.24048679631999E-11                       0         198474070.05886        1977410.61718291        521.041885108791       0.208267478924023       -15.8243259113545        13.1524315779843    2.10788802158253E-13                       0 
    0.00550375939849624                       0                       0         201.16318150197        2648.51223381345    1.44612558798789E-11                       0        198465129.981256        1977374.71521067        521.040634728379       0.208484477432635       -15.8566249967313        13.1659893723189    7.18881682100571E-14                       0 
    0.00580952380952381                       0                       0        201.153416950724        2651.34398273834   -5.77334005387285E-12                       0        198455437.713519        1977335.76190168        521.039277576161       0.208720034805226       -15.8916663243005        13.1807059345055   -2.87013899409646E-14                       0 
    0.00611528822055138                       0                       0        201.142838215407        2654.40411744461   -3.13534133917547E-11                       0        198444939.230685        1977293.59869472        521.037762405647       0.208974649594849       -15.9296156853339        13.1966125740323   -1.55876554909152E-13                       0 
    0.00642105263157895                       0                       0        201.131400660411        2657.70584911083   -6.31964715455484E-11                       0        198433599.999947        1977247.98684189        521.036213121909       0.209249429798156       -15.9706296922696        13.2137782449019   -3.14205084050082E-13                       0 
    0.00672681704260652                       0                       0        201.119078051736        2661.26160124098    -6.6299270369102E-11                       0        198421364.242276        1977198.87089368        521.034455644849       0.209545415908529       -16.0148612589042        13.2322686662998    -3.2965178562254E-13                       0 
    0.00703258145363408                       0                       0        201.105794229562         2665.0873609967   -5.11314681424738E-11                       0        198408177.520802        1977145.80136631        521.032641570553       0.209863957230383       -16.0625315036443        13.2521672258385   -2.54251489589337E-13                       0 
    0.00733834586466165                       0                       0        201.091477128551        2669.20108383433   -1.66229740894829E-11                       0        198393964.270433         1977088.8195479        521.030610278103       0.210206527128727       -16.1138743359155         13.273566303762   -8.26634024627353E-14                       0 
    0.00764411027568922                       0                       0        201.076098377547        2673.61187132925    1.02963476215904E-11                       0         198378702.52104        1977027.50283862         521.02848383843       0.210573976759315       -16.1690451419423        13.2965182445815    5.12063356799809E-14                       0 
    0.00794987468671679                       0                       0        201.059587704234         2678.3361847196    1.85029716983019E-11                       0         198362319.75083        1976961.67477751        521.026184998576       0.210967652425186       -16.2282534600514        13.3211071649542    9.20273924065702E-14                       0 
    0.00825563909774436                       0                       0        201.041889723427        2683.39048897177    2.48949733204746E-11                       0        198344757.160809        1976891.04882345         521.02370137212       0.211388947214218       -16.2917367039456        13.3474201871225    1.23829746343827E-13                       0 
    0.00856140350877193                       0                       0        201.022908796228        2688.79720912034    1.71350116987274E-11                       0        198325922.245499        1976815.39035041        521.021045350176       0.211839789625474       -16.3598135567539        13.3755768058229    8.52389605029982E-14                       0 
     0.0088671679197995                       0                       0        201.002618712391        2694.57552738709    2.94561226054615E-12                       0        198305781.186387        1976734.50475315        521.018233145759        0.21232172934198       -16.4325958569228        13.4056742594351    1.46543502657099E-14                       0 
    0.00917293233082707                       0                       0        200.980886575381        2700.73782786716   -9.01770475134258E-12                       0        198284216.047226        1976647.88340675        521.015180313424        0.21283592628251       -16.5105190601282        13.4377847591469   -4.48685792164257E-14                       0 
    0.00947869674185464                       0                       0        200.957674284506        2707.30172457162   -1.97855340571954E-11                       0        198261184.466837        1976555.35927827        521.011947132653       0.213383855158339       -16.5937475230857        13.4719996844528   -9.84560616118258E-14                       0 
     0.0097844611528822                       0                       0        200.932898144538        2714.28994064525   -1.85865430616408E-11                       0        198236586.013938        1976456.59675983        521.008496734651       0.213967445091499       -16.6826150621783        13.5084394509548   -9.25012569823752E-14                       0 
     0.0100902255639098                       0                       0        200.906433799549        2721.72884627107   -1.84706557508102E-11                       0        198210329.389132        1976351.09964688        521.004785065289       0.214588986617565       -16.7775132540654         13.547245712795   -9.19367658467145E-14                       0 
     0.0103959899749373                       0                       0        200.878221771184        2729.62976075569   -1.15625262866817E-11                       0        198182331.012376        1976238.69778185        521.000852660057        0.21524945720379       -16.8786346711142        13.5884805159732   -5.75596642399472E-14                       0 
     0.0107017543859649                       0                       0        200.848189751195        2738.01330938181     -1.507673255514E-11                       0        198152526.575615        1976119.06351248        520.996685895116       0.215950634624639        -16.986303438333        13.6322524895414   -7.50652367660026E-14                       0 
     0.0110075187969925                       0                       0        200.816249394024        2746.90008131088   -7.68102665316731E-12                       0        198120820.909375        1975991.75272735        520.992210442365       0.216694324961569       -17.1008515721089        13.6786749393504   -3.82489042619778E-14                       0 
       0.01131328320802                       0                       0        200.782221812569        2756.32276403071   -2.07198779092722E-12                       0        198087063.531066        1975856.12496874        520.987466528985        0.21748333108255         -17.22278804771        13.7279228596369   -1.03195674793728E-14                       0 
     0.0116190476190476                       0                       0        200.746074147421        2766.29699851541     1.1391184005754E-11                       0        198051180.968123        1975712.16077748        520.982410251502       0.218319043860642       -17.3523925939259        13.7800806362035    5.67446860336854E-14                       0 
     0.0119248120300752                       0                       0        200.707678357245        2776.83981734468    1.95207340552139E-11                       0        198013077.335718        1975559.21069696        520.977041609074       0.219203017173105       -17.4899849469736        13.8352454152846    9.72594694781417E-14                       0 
     0.0122305764411028                       0                       0        200.666950967733        2787.97394886752    1.88972420398336E-11                       0        197972667.677005        1975397.00644941        520.971360586837       0.220137207616347        -17.635918712207        13.8935384809615    9.41723058494785E-14                       0 
     0.0125363408521303                       0                       0        200.623798618473        2799.73391422021    1.53291134941408E-11                       0        197929822.768047        1975225.06442029        520.965306175115       0.221124565422595        -17.790580218198        13.9551433748838    7.64072228179958E-14                       0 
     0.0128421052631579                       0                       0        200.577957955993        2812.14210280701    2.72739589448585E-12                       0        197884344.420635        1975042.53947201        520.958923339786        0.22216726997353       -17.9547913215064        14.0201958612083    1.35972295592715E-14                       0 
     0.0131478696741855                       0                       0        200.529447085703        2825.20741606904   -1.25248515320757E-11                       0        197836197.926588        1974849.33534092        520.952138192965       0.223266122282031       -18.1286012651599        14.0887413791426   -6.24594345485633E-14                       0 
      0.013453634085213                       0                       0        200.478108564216        2838.95371034862   -2.81115202718701E-11                       0        197785250.200943        1974644.93559787        520.944963568514       0.224423282729745       -18.3124897975224        14.1609167907047   -1.40222508735115E-13                       0 
     0.0137593984962406                       0                       0        200.423831517958        2853.40439795196   -3.14897831287464E-11                       0        197731383.771004        1974428.81277532        520.937406375242       0.225640869315128       -18.5069103558016        14.2368515380877   -1.57116081866215E-13                       0 
     0.0140651629072682                       0                       0        200.366407631247        2868.59435713611   -3.29893272886879E-11                       0        197674386.139531        1974200.21042243        520.929380943863       0.226922074787355       -18.7125535144452        14.3167432774177   -1.64644707226602E-13                       0 
     0.0143709273182957                       0                       0        200.305731688282        2884.53955841552   -2.86564246664473E-11                       0        197614168.393752        1973958.69146737        520.920877788303       0.228268409632616       -18.9298460314369        14.4006852901735   -1.43063509338726E-13                       0 
     0.0146766917293233                       0                       0        200.241668069521        2901.25721769728   -1.57149127387694E-11                       0        197550587.123928        1973703.72296995        520.911906085328       0.229681545504177       -19.1592027886345        14.4887793416361   -7.84801798813679E-14                       0 
     0.0149824561403509                       0                       0        200.174074608856        2918.77122728909    -1.5575445338814E-11                       0        197483506.180055        1973434.82649156        520.902454032294       0.231163724608417       -19.4011580171416         14.581165236338   -7.78094201783713E-14                       0 
     0.0152882205513784                       0                       0        200.102800577853        2937.10343901991   -1.76913240216637E-11                       0        197412777.640873        1973151.23502165        520.892495970973       0.232717076460269       -19.6562626813417        14.6779730116749   -8.84111592855147E-14                       0 
      0.015593984962406                       0                       0        200.027669444499         2956.3072324976   -1.37411601836159E-11                       0        197338212.433713        1972852.38714827        520.881996553891       0.234346279455332       -19.9251441436139        14.7794927173614   -6.86959047159152E-14                       0 
     0.0158997493734336                       0                       0        199.948424828999        2976.37779545175   -1.86996976369373E-11                       0        197259570.645864        1972537.23275846         520.87087407322       0.236051445461003       -20.2086525155732        14.8857286366785   -9.35233281908388E-14                       0 
     0.0162055137844612                       0                       0        199.864995729908        2997.33541733911   -1.31315203449008E-11                       0        197176766.789953        1972205.52408642        520.859206873476       0.237834535262203       -20.5071256716663         14.996801509579   -6.57014117707172E-14                       0 
     0.0165112781954887                       0                       0        199.777173169958        3019.20370095713   -1.34529545667021E-11                       0        197089617.710573        1971856.40657871        520.846938041106       0.239697941805646       -20.8212168212828        15.1128568387951   -6.73394235777013E-14                       0 
     0.0168170426065163                       0                       0        199.684699204741        3042.02286305789   -5.36965262690724E-12                       0        196997839.018577        1971488.81100598         520.83398650272       0.241645479307898       -21.1519044421425        15.2341319222949   -2.68905569993257E-14                       0 
     0.0171228070175439                       0                       0        199.587374127929        3065.81280458084    -2.0674587986932E-12                       0        196901247.051202        1971102.03685342        520.820359599824       0.243679300882868       -21.4998602779353        15.3607568796461   -1.03579161097974E-14                       0 
     0.0174285714285714                       0                       0        199.485046271116        3090.58673263119   -9.90971567626369E-12                       0        196799686.742479         1970695.4102553        520.806012818587       0.245800950954555       -21.8656522249038        15.4928263378092   -4.96766180242385E-14                       0 
      0.017734335839599                       0                       0        199.377472220362        3116.36916345801   -1.11821545941445E-11                       0        196692930.282819        1970268.15332896        520.790946159007         0.2480130240432       -22.2500833343106        15.6304990250155   -5.60854098541045E-14                       0 
     0.0180401002506266                       0                       0        199.264418821692        3143.18661226392   -1.53014081567784E-11                       0        196580722.164543        1969819.18121968        520.775097057843       0.250318333860541       -22.6540288722396        15.7739483530492    -7.6789490516109E-14                       0 
     0.0183458646616541                       0                       0        199.145456044572        3171.09245563389   -1.28708500721927E-11                       0        196462671.138805        1969346.88102138        520.758394838155       0.252722209248637       -23.0789465793635         15.923501190645   -6.46292718475592E-14                       0 
     0.0186516290726817                       0                       0        199.020536535321        3200.08817687559   -8.35662736993989E-12                       0        196338694.306993        1968850.98091957        520.740883254113       0.255225148880381       -23.5250591348418        16.0791886412479   -4.19879816309631E-14                       0 
     0.0189573934837093                       0                       0        198.889296291284        3230.21522994597   -3.48161372416413E-12                       0        196208436.972513        1968330.11433435         520.72246302596       0.257831430128417       -23.9936299078066        16.2412752494789    -1.7505993213238E-14                       0 
     0.0192631578947368                       0                       0        198.751413272628         3261.4776679408     -2.254808956718E-12                       0        196071593.091386        1967783.10457634        520.703099276649       0.260542369446648       -24.4857780208269        16.4098363268039   -1.13451093319571E-14                       0 
     0.0195689223057644                       0                       0        198.606505848399        3293.92646021179    1.36039689062677E-12                       0        195927782.538566        1967208.26785871        520.682750260558       0.263363103326283         -25.00286913829        16.5851911665278    6.85007333964304E-15                       0 
      0.019874686716792                       0                       0        198.454206037304        3327.59420408421   -4.25094796879184E-13                       0        195776624.367723        1966604.38863747        520.661396658845       0.266297415019465       -25.5461661575893        16.7675713449014    -2.1422175293396E-15                       0 
     0.0201804511278195                       0                       0        198.294245345993        3362.49697976603    9.21264249457065E-12                       0        195617879.852728        1965970.31966033        520.638895794158       0.269347494636233       -26.1166296358909        16.9571138851373    4.64595870887807E-14                       0 
     0.0204862155388471                       0                       0        198.126227783616        3398.66816583471    1.02372548751421E-11                       0         195451125.03101        1965304.45963956        520.615288035995       0.272517282947999       -26.7156426895401        17.1540584780212    5.16696866195577E-14                       0 
     0.0207919799498747                       0                       0        197.949740445015        3436.14209678956    7.53249388480694E-12                       0        195275964.353669        1964605.22179513        520.590430969429       0.275810822091407       -27.3446847951262        17.3586606079004    3.80525588042009E-14                       0 
     0.0210977443609023                       0                       0        197.764043226045        3474.99397278923    4.04650406631444E-12                       0        195091680.110772        1963869.91441564        520.564345245462       0.279236251173875       -28.0062860419124        17.5714180171626    2.04605060990445E-14                       0 
     0.0214035087719298                       0                       0         197.56891190158        3515.22436908385   -1.08288130749043E-11                       0        194898019.942713        1963097.33445764        520.536853417619        0.28279463625835       -28.7013142810627        17.7924033410131   -5.48129966468515E-14                       0 
     0.0217092731829574                       0                       0        197.363808938007        3556.87166896488   -1.22578703118421E-11                       0         194694457.45755        1962285.53300443         520.50795594548       0.286490794206466       -29.4316232735655        18.0219115598571   -6.21099803763192E-14                       0 
      0.022015037593985                       0                       0        197.148206817564        3599.97418600739   -2.33358225630928E-11                       0        194480476.926352        1961432.53355165        520.477584451077       0.290329571593807       -30.1990464964013        18.2602477921918   -1.18367079471155E-13                       0 
     0.0223208020050125                       0                       0        196.921492810545        3644.60870556415   -2.96492128973069E-11                       0        194255482.884747         1960535.9441332        520.445632793848       0.294319211556566       -31.0057271856643        18.5079304397328   -1.50564380624473E-13                       0 
     0.0226265664160401                       0                       0        196.682665904175        3690.81634348365   -2.11590794413533E-11                       0        194018454.190415        1959591.60701817        520.411933715898       0.298465940855052       -31.8551986297525        18.7653451128572   -1.07581163646827E-13                       0 
     0.0229323308270677                       0                       0        196.431373394946        3738.61531394733   -1.66366028176375E-11                       0        193769048.772304        1958598.48254667        520.376427619173       0.302772842037667       -32.7487196464795        19.0326914466461   -8.46963225529636E-14                       0 
     0.0232380952380952                       0                       0        196.166863177621        3788.05371517203   -1.24472895162165E-11                       0        193506535.221964        1957553.45675318        520.339047330053       0.307246304310276       -33.6888814339866        19.3103738137632   -6.34526027577327E-14                       0 
     0.0235438596491228                       0                       0        195.888345122216        3839.18064757428   -8.85651638207531E-12                       0        193230127.293597        1956453.43032419        520.299668636137       0.311893060309996       -34.6784622301943         19.598821912707   -4.52118398923071E-14                       0 
     0.0238496240601504                       0                       0         195.59455645548        3892.09475197245   -5.46615933753178E-12                       0        192938542.596795        1955293.65475744        520.258102520329       0.316725123170086       -35.7219304240608        19.8987990171614   -2.79471474405086E-14                       0 
     0.0241553884711779                       0                       0        195.284903862298        3946.80761502269   -1.33874113228015E-12                       0         192631216.60249        1954071.56137425        520.214248168021       0.321745816950808       -36.8213487941416        20.2105267136099   -6.85630228690361E-15                       0 
     0.0244611528822055                       0                       0         194.95842700571        4003.36782774265   -2.65699356579123E-12                       0         192307189.94094        1952783.56906792        520.167968370464       0.326962490737677       -37.9800645513927        20.5344869756409   -1.36273649320406E-14                       0 
     0.0247669172932331                       0                       0        194.614095145929        4061.83165468608   -4.69464910622547E-12                       0        191965457.733626        1951425.68577694        520.119120353895       0.332383383880241       -39.2017265776343        20.8712206192182   -2.41248725236912E-14                       0 