VARIABLES = "X"
 "Y"
 "Z"
 "Density"
 "Momentum_X"
 "Momentum_Y"
 "Momentum_Z"
 "Energy"
 "Pressure"
 "Temperature"
 "Mach"
 "Pressure_Coefficient"
 "Velocity_X"
 "Velocity_Y"
 "Velocity_Z"
ZONE
DT=(DOUBLE,DOUBLE,DOUBLE,DOUBLE,DOUBLE,DOUBLE,DOUBLE,DOUBLE,DOUBLE,DOUBLE,DOUBLE,DOUBLE,DOUBLE,DOUBLE,DOUBLE)
                      0                       0                       0        73.9786224365234        1521.97021484375    3.16805071065573E-08                       0                68317208             1188176.875        491.735992431641        0.20524474978447        -16.858922958374        20.5731086730957    4.28238666749792E-10                       0 
   0.000305764411027569                       0                       0        73.9785562386174         1522.0069408759    2.55850467235315E-08                       0        68317144.8220538        1188176.20770675        491.735992431641       0.205249794817315       -16.8596314451925        20.5736233321754    3.45844126537077E-10                       0 
   0.000611528822055138                       0                       0        73.9783338580266        1522.11055623443    3.81090186043898E-08                       0        68316938.3458693         1188173.9411028        491.735914340296       0.205264087607363       -16.8619975182709        20.5750844567907    5.15137541841182E-10                       0 
   0.000917293233082707                       0                       0        73.9779655054687        1522.28305537033    3.98825461163258E-08                       0        68316596.5713993         1188170.2828944        491.735829518248       0.205287896602906       -16.8659349602683        20.5775193955046    5.39113848917293E-10                       0 
    0.00122305764411028                       0                       0        73.9774519650473        1522.52449390312    3.88952482667892E-08                       0        68316119.4987668        1188165.10996262         491.73568366106       0.205321229899569       -16.8714708550663        20.5809268854414    5.25771648133989E-10                       0 
    0.00152882205513784                       0                       0        73.9767798900124        1522.83711594982     3.9074759725271E-08                       0        68315496.6617203        1188158.39473757         491.73551042219        0.20536436580761       -16.8786355013286        20.5853395815831    5.28203029094906E-10                       0 
    0.00183458646616541                       0                       0        73.9759565653319        1523.22355118423    3.79731835085165E-08                       0         68314727.699134        1188150.05075063        491.735289609486       0.205417711715873       -16.8874646680508        20.5907932375709    5.13317810679393E-10                       0 
    0.00214035087719298                       0                       0        73.9749694288099        1523.68389146434    3.86541185718194E-08                       0        68313811.7894054         1188140.1074554        491.735035143383       0.205481253176931       -16.8980296293316        20.5972904410907    5.22529686544216E-10                       0 
    0.00244611528822055                       0                       0        73.9738166829065        1524.22069329462    3.79601363547758E-08                       0        68312741.9950671        1188128.56485049        491.734742970119       0.205555348499793       -16.9103324708829        20.6048671267378    5.13156356129654E-10                       0 
    0.00275187969924812                       0                       0        73.9725034897178        1524.83651862095    3.81536801653708E-08                       0         68311520.661372        1188115.29792937        491.734403222935       0.205640340677342       -16.9244456789385        20.6135594810748    5.15781911848558E-10                       0 
    0.00305764411027569                       0                       0        73.9710022588876        1525.53643793881    3.63220240237814E-08                       0         68310124.511684        1188100.28101936        491.734009630517       0.205736969992164       -16.9404970423747        20.6234387438512    4.91030468242755E-10                       0 
    0.00336340852130326                       0                       0        73.9693173477815        1526.32112783215    3.55239995778204E-08                       0        68308556.2305757        1188083.34116541        491.733555002619       0.205845292872405       -16.9585219170599        20.6345172968178    4.80253084326158E-10                       0 
    0.00366917293233083                       0                       0        73.9674437094301        1527.19645819856    3.53167375142366E-08                       0        68306813.3528715        1188064.48213736        491.733059072712       0.205966128365946       -16.9786064235745        20.6468730905427    4.77463479338973E-10                       0 
     0.0039749373433584                       0                       0        73.9653715921987        1528.16254244216    3.39165351875069E-08                       0        68304886.2346619        1188043.68733328         491.73251556905       0.206099501480988       -17.0008248218446        20.6605141210893    4.58546258998951E-10                       0 
    0.00428070175438596                       0                       0        73.9630793518064        1529.22973647869    3.74055513806838E-08                       0        68302757.4733835        1188020.63157567        491.731921814955        0.20624684609853       -17.0253469267589        20.6755835905762    5.05732828496676E-10                       0 
    0.00458646616541353                       0                       0         73.960568306607        1530.39866306524    3.52359597804705E-08                       0        68300426.3462969        1187995.39004228        491.731276433393        0.20640823186006       -17.0522314896317        20.6920894649248    4.76415683790402E-10                       0 
     0.0048922305764411                       0                       0        73.9578164651182        1531.67757955776    3.30255371393698E-08                       0        68297867.6685833        1187967.73652245        491.730552959991       0.206584824023748       -17.0817008552547        20.7101518581779    4.46545274293289E-10                       0 
    0.00519799498746867                       0                       0        73.9548180194524        1533.06832172608    3.15615120305635E-08                       0        68295081.3446153        1187937.64913645        491.729751396067       0.206776876671797       -17.1137761231848        20.7297958055561    4.26767432844427E-10                       0 
    0.00550375939849624                       0                       0          73.95156217742        1534.57830184917    3.06177675104478E-08                       0        68292053.5927348        1187904.99904649        491.728902257108       0.206985384760647       -17.1486285361084        20.7511269650832    4.14024608950337E-10                       0 
    0.00580952380952381                       0                       0        73.9480267476513        1536.21575649989    2.98720867735572E-08                       0        68288767.6187888        1187869.37499721        491.727975027824       0.207211552649107       -17.1865070917827        20.7742632929544    4.03960547746659E-10                       0 
    0.00611528822055138                       0                       0        73.9442051870738        1537.98690101688    2.87617078702226E-08                       0        68285217.8454974        1187830.98215236        491.726969707247       0.207456165999144       -17.2274417201528        20.7992892908097    3.88964911163503E-10                       0 
    0.00642105263157895                       0                       0        73.9400650827315        1539.89790425442    2.63150513290052E-08                       0        68281373.4736662        1187789.36842086        491.725886294711         0.2077201369574       -17.2717659600973        20.8262976597493    3.55896777763328E-10                       0 
    0.00672681704260652                       0                       0        73.9356038534116        1541.95696136638    2.39714238241651E-08                       0        68277224.1375191        1187744.50466877        491.724724790277        0.20800459676895       -17.3195453529387        20.8554038339003    3.24220440797899E-10                       0 
    0.00703258145363408                       0                       0        73.9308003388361        1544.17177515707    2.27961310366639E-08                       0        68272759.7784296        1187696.17417441        491.723452460214       0.208310589264153       -17.3710123337322        20.8867177580613    3.08344093952419E-10                       0 
    0.00733834586466165                       0                       0        73.9256256217361        1546.55439842678    2.40935575164854E-08                       0         68267944.781873        1187644.14473595        491.722097525897       0.208639803243105       -17.4264565240657        20.9204103145759    3.25916345041268E-10                       0 
    0.00764411027568922                       0                       0        73.9200610032268        1549.10966699062    2.39641687486551E-08                       0        68262774.5780488        1187588.22526803        491.720649662332       0.208992923488438        -17.486061617882        20.9565526567844    3.24190845994462E-10                       0 
    0.00794987468671679                       0                       0        73.9140845819613        1551.84860945824     2.4672779031469E-08                       0        68257221.2903212        1187528.14752501        491.719084239333       0.209371472857117       -17.5500852063785        20.9953020723219    3.33803031810729E-10                       0 
    0.00825563909774436                       0                       0        73.9076972859799        1554.77683546064    2.48430435639708E-08                       0         68251282.582352        1187463.90033133        491.717408831578        0.20977623519725        -17.618568883748        21.0367382880375    3.36135978010803E-10                       0 
    0.00856140350877193                       0                       0         73.900819744938        1557.91274116162    1.99327131054765E-08                       0        68244886.0350485        1187394.72368379        491.715602406273       0.210209784280355       -17.6922570283289        21.0811309147928    2.69722142525907E-10                       0 
     0.0088671679197995                       0                       0        73.8934629293119        1561.26041596758    1.91418059008815E-08                       0         68238053.899265        1187320.71527475        491.713668939286       0.210672678570543       -17.7710640749325        21.1285318522739    2.59045600193377E-10                       0 
    0.00917293233082707                       0                       0        73.8856058862461        1564.83219400971    1.81269117584599E-08                       0        68230752.0557864        1187241.73585499        491.711590987964       0.211166640381491        -17.855245626302         21.179120961737    2.45337748051098E-10                       0 
    0.00947869674185464                       0                       0        73.8772039910923        1568.63572313876    1.83937722034024E-08                       0        68222940.3059216        1187157.22300506        491.709399458584       0.211692765421144       -17.9452853034447        21.2330133204702    2.48977452536738E-10                       0 
     0.0097844611528822                       0                       0        73.8682548654553        1572.68895168435     1.7315606823867E-08                       0          68214624.61779        1187067.15942046        491.707049987814       0.212253495930786       -18.0412560469207        21.2904572662853    2.34411965933751E-10                       0 
     0.0100902255639098                       0                       0        73.8586792357039        1577.00087375312    1.48266313623468E-08                       0        68205720.4831221        1186970.75096062        491.704539364081       0.212850191298499       -18.1439503039441        21.3515980954182    2.00742919803439E-10                       0 
     0.0103959899749373                       0                       0        73.8484754916064        1581.58299517359    1.49623389577479E-08                       0        68196235.5974156         1186868.0774721        491.701857260918       0.213484417298136        -18.253350464095         21.416597929997    2.02609082370425E-10                       0 
     0.0107017543859649                       0                       0        73.8376176992431        1586.44518098124    1.37918361620498E-08                       0        68186144.5543447        1186758.81132701        491.699010478909       0.214157537881028       -18.3697552742971        21.4855946471459    1.86786660556925E-10                       0 
     0.0110075187969925                       0                       0        73.8260700457211        1591.60034001258    1.40783130632009E-08                       0        68175412.5034616        1186642.61081753        491.695977000874       0.214871420403419       -18.4936041765083        21.5587857567265    1.90695685827559E-10                       0 
       0.01131328320802                       0                       0        73.8137737809943        1597.06795954702    1.43528576445006E-08                       0        68163985.6815784         1186518.7982171        491.692751929147       0.215628755035627       -18.6255135087022        21.6364492103031    1.94447308523977E-10                       0 
     0.0116190476190476                       0                       0        73.8006984223054        1602.85808200633    1.19726947611636E-08                       0        68151829.7196122        1186387.14886723        491.689319430428       0.216431013533592       -18.7657833393141        21.7187387015153     1.6222982499437E-10                       0 
     0.0119248120300752                       0                       0        73.7868149990546        1608.97790673064    1.08407183347701E-08                       0        68138928.7962846        1186247.37797482        491.685671014532       0.217279216914122       -18.9147174871564        21.8057634777053    1.46919353779889E-10                       0 
     0.0122305764411028                       0                       0        73.7720915980721        1615.44318311173    1.03814993589189E-08                       0         68125240.029201         1186099.0656712        491.681812637043        0.21817558884905       -19.0727359100158        21.8977541450725    1.40723790097062E-10                       0 
     0.0125363408521303                       0                       0        73.7565068687363        1622.26199532315    9.25810306155116E-09                       0        68110761.6343737        1185942.07476897        491.677706531653       0.219121284542166       -19.2400314768944        21.9948322978634    1.25522499419409E-10                       0 
     0.0128421052631579                       0                       0        73.7399613228338         1629.4641563674    8.23663020548288E-09                       0        68095374.3156485        1185775.24341952        491.673360724159       0.220120517840258       -19.4177264179638        22.0974383112625    1.11698097054047E-10                       0 
     0.0131478696741855                       0                       0        73.7224440535001        1637.04455035243    7.14372247631436E-09                       0        68079094.0057475        1185598.68714678        491.668764887068       0.221172648690444       -19.6058176560711        22.2055117531447    9.69001429894859E-11                       0 
      0.013453634085213                       0                       0        73.7039036408397        1645.02468812087    6.47759255787408E-09                       0        68061865.7893313        1185411.78398355        491.663887191696       0.222280732257797       -19.8049543933261        22.3193703310787    8.78867755496054E-11                       0 
     0.0137593984962406                       0                       0        73.6843112396458        1653.40750301303    4.32529992927202E-09                       0        68043657.3069143          1185214.214108        491.658729950129       0.223445236496605       -20.0154476339271        22.4390708880283    5.87007546024534E-11                       0 
     0.0140651629072682                       0                       0        73.6635954339835        1662.22576003545    5.70009417821903E-09                       0        68024394.8383814        1185005.28154668        491.653303483312        0.22467079896334       -20.2380847793971        22.5650919479053    7.73804166290942E-11                       0 
     0.0143709273182957                       0                       0        73.6417191057138        1671.48561484906    5.00475160448412E-09                       0        68004067.9742438         1184784.6056233        491.647540712752       0.225958346449892       -20.4732382281845        22.6975372769617    6.79619950942037E-11                       0 
     0.0146766917293233                       0                       0         73.618620125772         1681.1950194145    4.31674477685187E-09                       0        67982597.6732005        1184551.47953007        491.641461141148       0.227309117120669       -20.7215823499942        22.8365486323976    5.86366680633111E-11                       0 
     0.0149824561403509                       0                       0        73.5942820260599        1691.36880786535    4.24731408910204E-09                       0        67959974.2936489        1184305.74098791        491.635069188337       0.228725222189714       -20.9833893241733        22.9823422428685    5.77118013463868E-11                       0 
     0.0152882205513784                       0                       0        73.5685811779906         1702.0193192768    3.21543974484071E-09                       0        67936089.7028421        1184046.25070663        491.628303005505       0.230208607490124       -21.2598479468613        23.1351390284509    4.37067061526497E-11                       0 
      0.015593984962406                       0                       0        73.5415271322896        1713.17485959841    4.66074295157388E-10                       0        67910944.5956261        1183772.96704137        491.621188054553       0.231763204711356       -21.5510143157738        23.2953417584432     6.3361457861069E-12                       0 
     0.0158997493734336                       0                       0        73.5130072661794        1724.82779337462    1.77208312975752E-10                       0        67884438.2083666        1183484.86248595        491.613667262848       0.233388217193804       -21.8580824677061        23.4628945493978    2.41038662663485E-12                       0 
     0.0162055137844612                       0                       0        73.4830031879654        1737.00736635467   -4.49306665360909E-10                       0        67856555.7801404        1183181.53727417        491.605778965473       0.235087765514892       -22.1812155646658        23.6382206100349   -6.11279775052234E-12                       0 
     0.0165112781954887                       0                       0        73.4514372061589        1749.70949269103    4.92680564622902E-10                       0        67827213.2615574        1182862.37653466        491.597466940217       0.236861517663826       -22.5213011063425        23.8213105408711    6.70761710315544E-12                       0 
     0.0168170426065163                       0                       0         73.418204231024        1762.96195710612   -7.98699971384307E-10                       0        67796322.2122426        1182526.06229304        491.588704953026       0.238713565680469       -22.8795671102976        24.0126022977194   -1.08789151869468E-11                       0 
     0.0171228070175439                       0                       0        73.3832674141361        1776.78894493183   -8.18568734793458E-10                       0        67763850.0692904        1182172.49522242        491.579496674652       0.240647385031724       -23.2562990514023        24.2124570403326   -1.11544813740833E-11                       0 
     0.0174285714285714                       0                       0        73.3465608454779         1791.1802268362   -1.42074896380575E-09                       0         67729739.390073         1181800.8031518        491.569819848179       0.242661823256135       -23.6522823444669        24.4207839584648    -1.9368411750614E-11                       0 
      0.017734335839599                       0                       0        73.3079846542056        1806.16044815676   -9.71903340180021E-10                       0        67693883.7882348        1181410.11264453         491.55964395603       0.244760540286677       -24.0686348624765        24.6379798522774   -1.32584480206751E-11                       0 
     0.0180401002506266                       0                       0        73.2674965289997        1821.74630174311   -4.50925183871297E-10                       0         67656252.390451        1180999.75425637        491.548968616702       0.246946062996261       -24.5058743170841        24.8643180780376     -6.154396933564E-12                       0 
     0.0183458646616541                       0                       0        73.2248861626462        1837.96345854785    -1.6378545478132E-09                       0        67616655.7727164         1180567.6263688        491.537733939543       0.249222471402267       -24.9662217157265        25.1002612057761   -2.23672531304579E-11                       0 
     0.0186516290726817                       0                       0        73.1802168954917        1854.81597120864   -2.56762440474993E-09                       0        67575142.3659666        1180114.43804967        491.525922106185       0.251590365680641       -25.4491407776064         25.345871672668   -3.50881572677798E-11                       0 
     0.0189573934837093                       0                       0        73.1332808948782        1872.31630005589   -3.05119957109336E-09                       0        67531515.6356948        1179637.90605631        491.513523172629       0.254052006757097       -25.9568288959568        25.6014308517775   -4.17230306297713E-11                       0 
     0.0192631578947368                       0                       0         73.084076669134        1890.48370375475   -4.14118786544598E-09                       0        67485789.8373986        1179138.09805737        491.500530025853       0.256610279072242       -26.4893343730323        25.8672456543007   -5.66629559131106E-11                       0 
     0.0195689223057644                       0                       0        73.0323834629384        1909.34156352543   -5.24598651541037E-09                       0        67437752.4351493        1178612.64946487        491.486871085772       0.259269043558354       -27.0491915557505        26.1437671787849   -7.18320593611619E-11                       0 
      0.019874686716792                       0                       0        72.9781179473734        1928.91906326472   -4.18441141384336E-09                       0        67387313.0581817        1178060.67473084        491.472506703109       0.262032701420435       -27.6373099405684        26.4314776388062     -5.733496176129E-11                       0 
     0.0201804511278195                       0                       0        72.9211660227935        1949.20518521947   -3.48390969798754E-09                       0        67334386.9382742        1177480.95600845        491.457435989795       0.264900269503883       -28.2549258117934        26.7303151880587   -4.77759043369721E-11                       0 
     0.0204862155388471                       0                       0        72.8614240152944        1970.22604876209   -4.17003435677856E-09                       0        67278871.6454394        1176872.47757352        491.441625129466       0.267875811934518       -28.9032638161514         27.040734933708   -5.72310196562139E-11                       0 
     0.0207919799498747                       0                       0        72.7987696818951        1992.01028015464    -6.3421900013897E-09                       0        67220633.6854815        1176233.77889565         491.42500283806       0.270963818557669       -29.5838203242588        27.3632408415753   -8.71194268384666E-11                       0 
     0.0210977443609023                       0                       0        72.7329032979446        2014.60705862946   -3.66669380376385E-09                       0         67159422.593611          1175561.747208        491.407555807387       0.274172081386468       -30.2997945022093        27.6987103857885   -5.04101136623683E-11                       0 
     0.0214035087719298                       0                       0        72.6637703458895        2037.99320259901   -4.32170001472161E-09                       0        67095179.8410342        1174855.85428741        491.389219024499       0.277497891136047       -31.0518797179077        28.0469072009987   -5.94772698451909E-11                       0 
     0.0217092731829574                       0                       0        72.5912389282829        2062.21214674214   -3.70998260976771E-09                       0        67027777.6894668        1174114.60265184        491.369971914989       0.280947922731412       -31.8416720939939        28.4085654391891   -5.11108274233686E-11                       0 
      0.022015037593985                       0                       0        72.5150432786884        2087.27806221367   -3.95911287011172E-09                       0        66956966.7257148        1173335.21692853        491.349713289337        0.28452510307198       -32.6721148519078        28.7840742135161   -5.45988626143159E-11                       0 
     0.0223208020050125                       0                       0        72.4350750304024        2113.23175875589     -5.432156657901E-09                       0          66882654.36565        1172516.33705356        491.328477885258       0.288235966212226       -33.5445513637475        29.1741549986658   -7.49947786664875E-11                       0 
     0.0226265664160401                       0                       0        72.3509645695098        2140.09908781744    -5.7221765484748E-09                       0        66804488.4876665        1171654.15757833        491.306079573659       0.292085374113413       -34.4631927797303         29.579428895111   -7.90931267267832E-11                       0 
     0.0229323308270677                       0                       0        72.2626461927015        2167.90082255972    -5.1564208282919E-09                       0        66722419.7278441        1170747.95636112        491.282570940179       0.296076949436512       -35.4287354888376        30.0003134692199   -7.13541935403632E-11                       0 
     0.0232380952380952                       0                       0        72.1698487105599        2196.65571175685   -4.48924990989891E-09                       0        66636187.4887139        1169794.64736746        491.257853152658        0.30021457923376        -36.444451732978        30.4373175502688   -6.22046294935852E-11                       0 
     0.0235438596491228                       0                       0        72.0723132587034        2226.39691506883   -4.96875986842594E-09                       0        66545546.3164097        1168791.42169733        491.231824332863        0.30450425414341       -37.5133514166352        30.8911583107956   -6.89411689858993E-11                       0 
     0.0238496240601504                       0                       0        71.9695986129822        2257.17264884246    -3.4811026658106E-09                       0        66450101.9287854        1167733.59087595        491.204400306033       0.308954552020354       -38.6403846956323        31.3628783974477   -4.83640126582707E-11                       0 
     0.0241553884711779                       0                       0        71.8615143890104        2288.98748795249   -3.53401824087825E-09                       0        66349672.2744461        1166619.11918786        491.175518707935       0.313567445372591       -39.8278317159705        31.8527812767487   -4.91725026283338E-11                       0 
     0.0244611528822055                       0                       0        71.7478999005387        2321.88490916377    -4.7411015715841E-09                       0        66244099.0504883        1165445.82802383        491.145131686656        0.31835038036761       -41.0778746991076        32.3617369761554   -6.60717272710103E-11                       0 
     0.0247669172932331                       0                       0        71.6282910014508        2355.89738120589   -2.40227326022074E-09                       0        66132957.2641387        1164208.95852667        491.113100616699        0.32331005890278       -42.3957550586727        32.8906122515115   -3.35402435167834E-11                       0 